ITEM: TIMESTEP
0
ITEM: NUMBER OF ATOMS
402
ITEM: BOX BOUNDS ss ss ss
10 67.3908
10 22.6474
10 20.8545
ITEM: ATOMS id type xu yu zu
 1 1 64.357 18.2239 14.7911
 2 1 63.5971 17.8548 15.9088
 3 1 64.2116 17.6905 17.1514
 4 1 65.5781 17.9217 17.278
 5 1 66.3283 18.3088 16.1667
 6 1 65.721 18.4568 14.9224
 7 1 62.1237 17.676 15.7526
 8 2 61.8143 18.4314 15.0237
 9 1 61.746 16.27 15.2822
 10 2 61.5997 17.923 16.6851
 11 2 62.2557 16.0243 14.3423
 12 2 62.099 15.5394 16.0237
 13 2 12.8709 15.2164 15.5277
 14 2 63.8754 18.349 13.8225
 15 2 63.6287 17.4015 18.022
 16 2 66.056 17.8102 18.2459
 17 2 67.3908 18.5018 16.2724
 18 2 66.3044 18.7618 14.0606
 19 1 59.7494 14.321 13.3252
 20 1 59.9062 14.6942 14.6685
 21 1 59.86 13.6824 15.6455
 22 1 59.716 12.3408 15.2868
 23 1 59.592 11.9852 13.9477
 24 1 59.5903 12.9763 12.9688
 25 1 60.2229 16.1189 15.1135
 26 2 59.8221 16.2383 16.1274
 27 1 59.6456 17.2637 14.2431
 28 2 59.9363 18.2266 14.6734
 29 2 60.0847 17.2369 13.238
 30 2 59.7747 15.0581 12.5287
 31 2 59.9682 13.9293 16.6997
 32 2 59.7228 11.5716 16.0544
 33 2 59.5068 10.9372 13.6724
 34 2 59.4946 12.7025 11.9215
 35 1 57.5279 19.8274 13.9677
 36 1 57.7387 18.5775 13.3652
 37 1 57.6792 18.4968 11.9643
 38 1 57.4254 19.6326 11.1912
 39 1 57.2141 20.8635 11.8061
 40 1 57.258 20.9572 13.1936
 41 1 58.1186 17.3314 14.1614
 42 2 57.7952 16.4547 13.5918
 43 1 57.5251 17.2432 15.5845
 44 2 57.8534 16.3087 16.045
 45 2 57.919 18.0486 16.219
 46 2 57.5794 19.9475 15.0461
 47 2 57.8539 17.5447 11.4665
 48 2 57.4036 19.5629 10.108
 49 2 57.0235 21.7485 11.2064
 50 2 57.0944 21.9154 13.6795
 51 1 55.8705 15.9547 17.8612
 52 1 55.5586 17.0939 17.1015
 53 1 54.8509 18.1353 17.724
 54 1 54.4698 18.0397 19.0645
 55 1 54.8014 16.9086 19.8068
 56 1 55.5022 15.867 19.2049
 57 1 56.0024 17.2342 15.6469
 58 2 55.685 18.2156 15.2867
 59 1 55.445 16.1391 14.7116
 60 2 55.7967 16.2946 13.6872
 61 2 55.8217 15.154 15.019
 62 2 56.4226 15.1276 17.422
 63 2 54.5919 19.0364 17.1732
 64 2 53.9201 18.8552 19.5275
 65 2 54.5224 16.8371 20.8545
 66 2 55.77 14.9874 19.7834
 67 1 53.2345 15.2705 12.3238
 68 1 53.4681 15.0225 13.6854
 69 1 53.2803 13.7172 14.1659
 70 1 52.8502 12.6984 13.3142
 71 1 52.5933 12.9708 11.9735
 72 1 52.7835 14.2571 11.4782
 73 1 53.9254 16.1164 14.6448
 74 2 53.5991 15.8298 15.6487
 75 1 53.3801 17.533 14.3213
 76 2 53.736 18.2706 15.0428
 77 2 53.7577 17.8737 13.3483
 78 2 53.3786 16.2631 11.9061
 79 2 53.4647 13.4822 15.2114
 80 2 52.7099 11.6936 13.6995
 81 2 52.2473 12.1783 11.3172
 82 2 52.5819 14.4762 10.434
 83 1 51.1547 20.0004 14.9642
 84 1 51.3877 19.0103 13.998
 85 1 51.1669 19.3283 12.6462
 86 1 50.7034 20.5916 12.2767
 87 1 50.4489 21.5528 13.2525
 88 1 50.6705 21.2561 14.5957
 89 1 51.8618 17.6083 14.3666
 90 2 51.5107 16.9417 13.5772
 91 1 51.3509 17.0778 15.7306
 92 2 51.7077 16.062 15.9188
 93 2 51.7484 17.6895 16.5504
 94 2 51.3235 19.8015 16.0196
 95 2 51.349 18.5912 11.8674
 96 2 50.5392 20.8156 11.2261
 97 2 50.0796 22.5338 12.9672
 98 2 50.4667 21.9988 15.3626
 99 1 49.1883 15.174 17.4791
 100 1 49.3997 16.5275 17.1838
 101 1 49.1906 17.4686 18.1994
 102 1 48.763 17.0742 19.4687
 103 1 48.5261 15.7268 19.7317
 104 1 48.7349 14.778 18.7375
 105 1 49.8362 16.9973 15.8015
 106 2 49.4767 18.0211 15.6912
 107 1 49.3062 16.1523 14.62
 108 2 49.6462 16.5633 13.6653
 109 2 49.7055 15.1304 14.663
 110 2 49.3457 14.4051 16.7281
 111 2 49.3543 18.5323 18.0141
 112 2 48.604 17.8187 20.2439
 113 2 48.18 15.4094 20.7117
 114 2 48.5403 13.7275 18.9328
 115 1 47.5659 15.5589 12.0864
 116 1 47.299 15.2327 13.4338
 117 1 46.5572 14.0969 13.7171
 118 1 46.0588 13.286 12.697
 119 1 46.3257 13.6062 11.3688
 120 1 47.0884 14.7269 11.0648
 121 1 47.7923 16.1381 14.5559
 122 2 47.4797 15.6751 15.4895
 123 1 47.2487 17.5842 14.4784
 124 2 47.6179 18.2006 15.3009
 125 2 47.5922 18.0721 13.5553
 126 2 48.1506 16.429 11.8262
 127 2 46.3308 13.824 14.751
 128 2 45.4712 12.4046 12.9377
 129 2 45.9446 12.9684 10.5772
 130 2 47.3003 14.9828 10.0252
 131 1 44.9978 19.8637 15.5883
 132 1 45.2249 19.0612 14.4604
 133 1 44.9417 19.5943 13.193
 134 1 44.4186 20.8833 13.0668
 135 1 44.1642 21.6524 14.2004
 136 1 44.4538 21.1421 15.4618
 137 1 45.7379 17.6308 14.5742
 138 2 45.3906 17.0973 13.6866
 139 1 45.2687 16.8776 15.8484
 140 2 45.6466 15.8557 15.8868
 141 2 45.6615 17.3639 16.7507
 142 2 45.2076 19.4877 16.5853
 143 2 45.1189 18.9988 12.3
 144 2 44.1973 21.2884 12.0843
 145 2 43.7407 22.6474 14.0984
 146 2 44.2481 21.7313 16.3514
 147 1 43.1363 14.6648 17.2604
 148 1 43.3308 16.0513 17.1902
 149 1 43.0927 16.8216 18.3387
 150 1 42.642 16.2255 19.5168
 151 1 42.4201 14.8512 19.5615
 152 1 42.6679 14.0725 18.4343
 153 1 43.7629 16.7451 15.9076
 154 2 43.3851 17.7655 15.965
 155 1 43.251 16.0906 14.5985
 156 2 43.5681 16.6399 13.7101
 157 2 43.6651 15.0807 14.4872
 158 2 43.3195 14.0388 16.3909
 159 2 43.2529 17.8981 18.3214
 160 2 42.4595 16.836 20.3947
 161 2 42.0584 14.3916 20.4761
 162 2 42.4949 13.0012 18.4582
 163 1 40.978 16.0144 12.0943
 164 1 41.2605 15.339 13.289
 165 1 41.0622 13.9478 13.3396
 166 1 40.5581 13.2608 12.2351
 167 1 40.2461 13.9575 11.069
 168 1 40.4516 15.3325 10.9979
 169 1 41.7421 16.0697 14.5351
 170 2 41.4381 15.4591 15.3838
 171 1 41.1914 17.5087 14.7117
 172 2 41.5511 17.9763 15.6306
 173 2 41.5374 18.1567 13.8965
 174 2 41.135 17.087 12.013
 175 2 41.2849 13.3908 14.2475
 176 2 40.4039 12.1867 12.2918
 177 2 39.8413 13.432 10.2099
 178 2 40.1984 15.8765 10.0932
 179 1 38.9335 19.5748 16.1424
 180 1 39.1528 18.9387 14.913
 181 1 38.8456 19.6325 13.7324
 182 1 38.3008 20.9139 13.7835
 183 1 38.0585 21.5216 15.0132
 184 1 38.3732 20.8491 16.1905
 185 1 39.6829 17.5198 14.8252
 186 2 39.3173 17.1142 13.8825
 187 1 39.2591 16.5819 15.9819
 188 2 39.667 15.5797 15.8553
 189 2 39.6531 16.9406 16.9416
 190 2 39.1709 19.072 17.0767
 191 2 39.0209 19.1726 12.7619
 192 2 38.0578 21.4322 12.8613
 193 2 37.6313 22.5182 15.059
 194 2 38.1794 21.3155 17.1515
 195 1 37.7637 14.2014 17.3323
 196 1 37.3642 15.5415 17.2326
 197 1 36.5494 16.0829 18.2381
 198 1 36.1234 15.2957 19.3064
 199 1 36.5179 13.9623 19.3901
 200 1 37.3415 13.4206 18.4057
 201 1 37.7615 16.3912 16.0408
 202 2 37.3692 17.393 16.2109
 203 1 37.2541 15.829 14.6871
 204 2 37.5663 16.4508 13.8469
 205 2 37.6761 14.8329 14.5012
 206 2 38.3985 13.7605 16.5667
 207 2 36.223 17.1187 18.1873
 208 2 35.4742 15.7243 20.0646
 209 2 36.188 13.3441 20.2175
 210 2 37.655 12.3829 18.4717
 211 1 35.3975 15.8138 12.1063
 212 1 35.2212 15.1769 13.3423
 213 1 34.4871 13.9804 13.3863
 214 1 33.9315 13.4469 12.2236
 215 1 34.104 14.0963 11.0044
 216 1 34.8378 15.2789 10.9461
 217 1 35.7423 15.7831 14.6354
 218 2 35.479 15.0971 15.441
 219 1 35.1749 17.1975 14.9075
 220 2 35.5845 17.6283 15.8191
 221 2 35.4534 17.8912 14.1038
 222 2 35.9545 16.7438 12.0375
 223 2 34.3211 13.467 14.3314
 224 2 33.3526 12.529 12.2697
 225 2 33.6599 13.6817 10.1043
 226 2 34.9718 15.795 10
 227 1 33.487 19.2918 16.5289
 228 1 33.1369 18.5775 15.3746
 229 1 32.2291 19.1544 14.4748
 230 1 31.6731 20.4062 14.7305
 231 1 32.0178 21.0978 15.8872
 232 1 32.9301 20.5451 16.7823
 233 1 33.676 17.1835 15.1082
 234 2 33.2835 16.8483 14.1469
 235 1 33.3078 16.1814 16.2313
 236 2 33.724 15.1928 16.0423
 237 2 33.7279 16.5042 17.1922
 238 2 34.1893 18.8707 17.2447
 239 2 31.9385 18.6299 13.5693
 240 2 30.9654 20.8432 14.0334
 241 2 31.5735 22.0688 16.0842
 242 2 33.2073 21.088 17.6822
 243 1 31.8495 13.6554 17.4093
 244 1 31.4767 15.0063 17.4729
 245 1 30.7286 15.4471 18.5749
 246 1 30.3489 14.5529 19.5766
 247 1 30.7211 13.2133 19.497
 248 1 31.4746 12.7664 18.4149
 249 1 31.8134 15.9806 16.355
 250 2 31.4379 16.9631 16.6456
 251 1 31.2287 15.5487 14.9911
 252 2 31.5107 16.2414 14.1994
 253 2 31.6285 14.5723 14.6883
 254 2 32.4218 13.2781 16.5668
 255 2 30.4196 16.488 18.6498
 256 2 29.7539 14.8963 20.4173
 257 2 30.4179 12.5194 20.2756
 258 2 31.7656 11.7218 18.344
 259 1 29.3422 15.8824 12.5095
 260 1 29.1601 15.0937 13.6542
 261 1 28.4054 13.9159 13.556
 262 1 27.834 13.5437 12.3411
 263 1 28.0168 14.3391 11.2131
 264 1 28.7726 15.5054 11.2952
 265 1 29.7151 15.5191 15.0016
 266 2 29.4664 14.7425 15.7271
 267 1 29.1613 16.8891 15.4622
 268 2 29.5899 17.191 16.4176
 269 2 29.4387 17.6776 14.7508
 270 2 29.9194 16.8038 12.5637
 271 2 28.2451 13.287 14.4282
 272 2 27.2414 12.6376 12.2749
 273 2 27.5616 14.0452 10.2743
 274 2 28.9142 16.131 10.4185
 275 1 27.4975 18.7641 17.359
 276 1 27.1434 18.2254 16.1131
 277 1 26.2533 18.933 15.2913
 278 1 25.7222 20.1522 15.7113
 279 1 26.0771 20.6746 16.9524
 280 1 26.9634 19.9823 17.7756
 281 1 27.6594 16.8683 15.6648
 282 2 27.2534 16.6661 14.6718
 283 1 27.2673 15.7409 16.6476
 284 2 27.6719 14.7803 16.3292
 285 2 27.6977 15.9268 17.6406
 286 2 28.1821 18.2294 18.0161
 287 2 25.9517 18.5224 14.3289
 288 2 25.0242 20.6888 15.0784
 289 2 25.654 21.6211 17.2791
 290 2 27.2405 20.3873 18.7454
 291 1 25.7735 13.1206 17.4972
 292 1 25.416 14.455 17.7372
 293 1 24.6829 14.7635 18.8904
 294 1 24.2952 13.7564 19.7757
 295 1 24.6474 12.4341 19.521
 296 1 25.3898 12.1159 18.3864
 297 1 25.7635 15.5588 16.7523
 298 2 25.3937 16.5018 17.1616
 299 1 25.1495 15.3148 15.3554
 300 2 25.4323 16.1052 14.6599
 301 2 25.5423 14.3852 14.9221
 302 2 26.3457 12.849 16.6135
 303 2 24.394 15.7882 19.1049
 304 2 23.7145 14.0117 20.6567
 305 2 24.3438 11.6502 20.2102
 306 2 25.671 11.0871 18.1814
 307 1 23.2382 15.9709 12.9544
 308 1 23.0778 15.0308 13.9819
 309 1 22.3468 13.863 13.7218
 310 1 21.7697 13.6496 12.4708
 311 1 21.9228 14.5981 11.4626
 312 1 22.6634 15.7542 11.7028
 313 1 23.628 15.2799 15.3769
 314 2 23.3738 14.4197 16.0006
 315 1 23.0483 16.5712 16
 316 2 23.4735 16.7469 16.9892
 317 2 23.3321 17.4459 15.3991
 318 2 23.8021 16.8853 13.1209
 319 2 22.2018 13.1172 14.4994
 320 2 21.1942 12.746 12.2928
 321 2 21.466 14.4365 10.4912
 322 2 22.7902 16.5002 10.924
 323 1 21.3531 18.2002 18.0771
 324 1 21.0089 17.8145 16.7721
 325 1 20.1253 18.6155 16.0371
 326 1 19.5786 19.7668 16.6049
 327 1 19.9216 20.132 17.9052
 328 1 20.8094 19.3541 18.642
 329 1 21.5298 16.5232 16.1647
 330 2 21.1253 16.438 15.1527
 331 1 21.1013 15.2871 16.9914
 332 2 21.5052 14.3733 16.5529
 333 2 21.5321 15.3429 18.0008
 334 2 22.0396 17.5973 18.6657
 335 2 19.8481 18.3383 15.0227
 336 2 18.8803 20.372 16.0321
 337 2 19.4917 21.0256 18.3508
 338 2 21.0722 19.639 19.6556
 339 1 19.5876 12.5955 17.5459
 340 1 19.2471 13.8975 17.9432
 341 1 18.5178 14.072 19.1272
 342 1 18.1137 12.9698 19.8763
 343 1 18.4437 11.6802 19.4614
 344 1 19.1864 11.4938 18.2968
 345 1 19.5838 15.1071 17.0866
 346 2 19.2132 15.9991 17.5986
 347 1 18.9227 15.0195 15.6882
 348 2 19.1914 15.8871 15.0811
 349 2 19.3156 14.148 15.1453
 350 2 20.1551 12.4281 16.6345
 351 2 18.2392 15.0711 19.4564
 352 2 17.5281 13.1186 20.7807
 353 2 18.1184 10.8225 20.0409
 354 2 19.4459 10.4933 17.9634
 355 1 16.8919 15.8191 13.3999
 356 1 16.7956 14.7894 14.349
 357 1 16.0558 13.6386 14.0268
 358 1 15.3879 13.5421 12.8045
 359 1 15.4659 14.586 11.886
 360 1 16.2224 15.7185 12.1797
 361 1 17.3886 14.939 15.7445
 362 2 17.1653 14.0209 16.2945
 363 1 16.7581 16.142 16.5021
 364 2 17.2141 16.2584 17.4878
 365 2 16.9819 17.0736 15.9636
 366 2 17.4596 16.7223 13.6176
 367 2 15.9617 12.8249 14.7425
 368 2 14.793 12.6612 12.5763
 369 2 14.9339 14.5247 10.9395
 370 2 16.2752 16.5323 11.4605
 371 1 14.9366 17.5781 18.6856
 372 1 14.6288 17.2417 17.3591
 373 1 13.6343 17.9718 16.6875
 374 1 12.9234 18.9736 17.3487
 375 1 13.2084 19.2667 18.6805
 376 1 14.2209 18.5774 19.3451
 377 1 15.234 16.014 16.6977
 378 2 14.813 15.9423 15.6909
 379 1 14.841 14.7408 17.498
 380 2 15.3056 13.8676 17.0363
 381 2 15.2495 14.7918 18.5165
 382 2 15.6999 17.0311 19.2323
 383 2 13.3709 17.7329 15.6582
 384 2 12.1301 19.5081 16.8303
 385 2 12.6341 20.0281 19.203
 386 2 14.4367 18.7979 20.3868
 387 1 13.6374 12.1005 18.4168
 388 1 12.8799 13.2782 18.3553
 389 1 11.5797 13.273 18.8914
 390 1 11.0262 12.1006 19.4023
 391 1 11.7708 10.9243 19.4059
 392 1 13.0815 10.9288 18.9334
 393 1 13.316 14.4962 17.5548
 394 2 12.8487 15.3705 18.025
 395 1 12.7432 14.3216 16.1398
 396 2 13.2331 13.4864 15.6261
 397 2 11.6692 14.1124 16.1649
 398 2 14.6432 12.0526 18.0117
 399 2 10.9667 14.171 18.8486
 400 2 10 12.0982 19.7558
 401 2 11.3235 10 19.7577
 402 2 13.659 10.0094 18.9238
ITEM: TIMESTEP
1
ITEM: NUMBER OF ATOMS
402
ITEM: BOX BOUNDS ss ss ss
10 67.3908
10 22.6474
10 20.8545
ITEM: ATOMS id type xu yu zu
 1 1 64.357 18.2239 14.7911
 2 1 63.5971 17.8548 15.9088
 3 1 64.2116 17.6905 17.1514
 4 1 65.5781 17.9217 17.278
 5 1 66.3283 18.3088 16.1667
 6 1 65.721 18.4568 14.9224
 7 1 62.1237 17.676 15.7526
 8 2 61.8143 18.4314 15.0237
 9 1 61.746 16.27 15.2822
 10 2 61.5997 17.923 16.6851
 11 2 62.2557 16.0243 14.3423
 12 2 62.099 15.5394 16.0237
 13 2 12.8709 15.2164 15.5277
 14 2 63.8754 18.349 13.8225
 15 2 63.6287 17.4015 18.022
 16 2 66.056 17.8102 18.2459
 17 2 67.3908 18.5018 16.2724
 18 2 66.3044 18.7618 14.0606
 19 1 59.7494 14.321 13.3252
 20 1 59.9062 14.6942 14.6685
 21 1 59.86 13.6824 15.6455
 22 1 59.716 12.3408 15.2868
 23 1 59.592 11.9852 13.9477
 24 1 59.5903 12.9763 12.9688
 25 1 60.2229 16.1189 15.1135
 26 2 59.8221 16.2383 16.1274
 27 1 59.6456 17.2637 14.2431
 28 2 59.9363 18.2266 14.6734
 29 2 60.0847 17.2369 13.238
 30 2 59.7747 15.0581 12.5287
 31 2 59.9682 13.9293 16.6997
 32 2 59.7228 11.5716 16.0544
 33 2 59.5068 10.9372 13.6724
 34 2 59.4946 12.7025 11.9215
 35 1 57.5279 19.8274 13.9677
 36 1 57.7387 18.5775 13.3652
 37 1 57.6792 18.4968 11.9643
 38 1 57.4254 19.6326 11.1912
 39 1 57.2141 20.8635 11.8061
 40 1 57.258 20.9572 13.1936
 41 1 58.1186 17.3314 14.1614
 42 2 57.7952 16.4547 13.5918
 43 1 57.5251 17.2432 15.5845
 44 2 57.8534 16.3087 16.045
 45 2 57.919 18.0486 16.219
 46 2 57.5794 19.9475 15.0461
 47 2 57.8539 17.5447 11.4665
 48 2 57.4036 19.5629 10.108
 49 2 57.0235 21.7485 11.2064
 50 2 57.0944 21.9154 13.6795
 51 1 55.8705 15.9547 17.8612
 52 1 55.5586 17.0939 17.1015
 53 1 54.8509 18.1353 17.724
 54 1 54.4698 18.0397 19.0645
 55 1 54.8014 16.9086 19.8068
 56 1 55.5022 15.867 19.2049
 57 1 56.0024 17.2342 15.6469
 58 2 55.685 18.2156 15.2867
 59 1 55.445 16.1391 14.7116
 60 2 55.7967 16.2946 13.6872
 61 2 55.8217 15.154 15.019
 62 2 56.4226 15.1276 17.422
 63 2 54.5919 19.0364 17.1732
 64 2 53.9201 18.8552 19.5275
 65 2 54.5224 16.8371 20.8545
 66 2 55.77 14.9874 19.7834
 67 1 53.2345 15.2705 12.3238
 68 1 53.4681 15.0225 13.6854
 69 1 53.2803 13.7172 14.1659
 70 1 52.8502 12.6984 13.3142
 71 1 52.5933 12.9708 11.9735
 72 1 52.7835 14.2571 11.4782
 73 1 53.9254 16.1164 14.6448
 74 2 53.5991 15.8298 15.6487
 75 1 53.3801 17.533 14.3213
 76 2 53.736 18.2706 15.0428
 77 2 53.7577 17.8737 13.3483
 78 2 53.3786 16.2631 11.9061
 79 2 53.4647 13.4822 15.2114
 80 2 52.7099 11.6936 13.6995
 81 2 52.2473 12.1783 11.3172
 82 2 52.5819 14.4762 10.434
 83 1 51.1547 20.0004 14.9642
 84 1 51.3877 19.0103 13.998
 85 1 51.1669 19.3283 12.6462
 86 1 50.7034 20.5916 12.2767
 87 1 50.4489 21.5528 13.2525
 88 1 50.6705 21.2561 14.5957
 89 1 51.8618 17.6083 14.3666
 90 2 51.5107 16.9417 13.5772
 91 1 51.3509 17.0778 15.7306
 92 2 51.7077 16.062 15.9188
 93 2 51.7484 17.6895 16.5504
 94 2 51.3235 19.8015 16.0196
 95 2 51.349 18.5912 11.8674
 96 2 50.5392 20.8156 11.2261
 97 2 50.0796 22.5338 12.9672
 98 2 50.4667 21.9988 15.3626
 99 1 49.1883 15.174 17.4791
 100 1 49.3997 16.5275 17.1838
 101 1 49.1906 17.4686 18.1994
 102 1 48.763 17.0742 19.4687
 103 1 48.5261 15.7268 19.7317
 104 1 48.7349 14.778 18.7375
 105 1 49.8362 16.9973 15.8015
 106 2 49.4767 18.0211 15.6912
 107 1 49.3062 16.1523 14.62
 108 2 49.6462 16.5633 13.6653
 109 2 49.7055 15.1304 14.663
 110 2 49.3457 14.4051 16.7281
 111 2 49.3543 18.5323 18.0141
 112 2 48.604 17.8187 20.2439
 113 2 48.18 15.4094 20.7117
 114 2 48.5403 13.7275 18.9328
 115 1 47.5659 15.5589 12.0864
 116 1 47.299 15.2327 13.4338
 117 1 46.5572 14.0969 13.7171
 118 1 46.0588 13.286 12.697
 119 1 46.3257 13.6062 11.3688
 120 1 47.0884 14.7269 11.0648
 121 1 47.7923 16.1381 14.5559
 122 2 47.4797 15.6751 15.4895
 123 1 47.2487 17.5842 14.4784
 124 2 47.6179 18.2006 15.3009
 125 2 47.5922 18.0721 13.5553
 126 2 48.1506 16.429 11.8262
 127 2 46.3308 13.824 14.751
 128 2 45.4712 12.4046 12.9377
 129 2 45.9446 12.9684 10.5772
 130 2 47.3003 14.9828 10.0252
 131 1 44.9978 19.8637 15.5883
 132 1 45.2249 19.0612 14.4604
 133 1 44.9417 19.5943 13.193
 134 1 44.4186 20.8833 13.0668
 135 1 44.1642 21.6524 14.2004
 136 1 44.4538 21.1421 15.4618
 137 1 45.7379 17.6308 14.5742
 138 2 45.3906 17.0973 13.6866
 139 1 45.2687 16.8776 15.8484
 140 2 45.6466 15.8557 15.8868
 141 2 45.6615 17.3639 16.7507
 142 2 45.2076 19.4877 16.5853
 143 2 45.1189 18.9988 12.3
 144 2 44.1973 21.2884 12.0843
 145 2 43.7407 22.6474 14.0984
 146 2 44.2481 21.7313 16.3514
 147 1 43.1363 14.6648 17.2604
 148 1 43.3308 16.0513 17.1902
 149 1 43.0927 16.8216 18.3387
 150 1 42.642 16.2255 19.5168
 151 1 42.4201 14.8512 19.5615
 152 1 42.6679 14.0725 18.4343
 153 1 43.7629 16.7451 15.9076
 154 2 43.3851 17.7655 15.965
 155 1 43.251 16.0906 14.5985
 156 2 43.5681 16.6399 13.7101
 157 2 43.6651 15.0807 14.4872
 158 2 43.3195 14.0388 16.3909
 159 2 43.2529 17.8981 18.3214
 160 2 42.4595 16.836 20.3947
 161 2 42.0584 14.3916 20.4761
 162 2 42.4949 13.0012 18.4582
 163 1 40.978 16.0144 12.0943
 164 1 41.2605 15.339 13.289
 165 1 41.0622 13.9478 13.3396
 166 1 40.5581 13.2608 12.2351
 167 1 40.2461 13.9575 11.069
 168 1 40.4516 15.3325 10.9979
 169 1 41.7421 16.0697 14.5351
 170 2 41.4381 15.4591 15.3838
 171 1 41.1914 17.5087 14.7117
 172 2 41.5511 17.9763 15.6306
 173 2 41.5374 18.1567 13.8965
 174 2 41.135 17.087 12.013
 175 2 41.2849 13.3908 14.2475
 176 2 40.4039 12.1867 12.2918
 177 2 39.8413 13.432 10.2099
 178 2 40.1984 15.8765 10.0932
 179 1 38.9335 19.5748 16.1424
 180 1 39.1528 18.9387 14.913
 181 1 38.8456 19.6325 13.7324
 182 1 38.3008 20.9139 13.7835
 183 1 38.0585 21.5216 15.0132
 184 1 38.3732 20.8491 16.1905
 185 1 39.6829 17.5198 14.8252
 186 2 39.3173 17.1142 13.8825
 187 1 39.2591 16.5819 15.9819
 188 2 39.667 15.5797 15.8553
 189 2 39.6531 16.9406 16.9416
 190 2 39.1709 19.072 17.0767
 191 2 39.0209 19.1726 12.7619
 192 2 38.0578 21.4322 12.8613
 193 2 37.6313 22.5182 15.059
 194 2 38.1794 21.3155 17.1515
 195 1 37.7637 14.2014 17.3323
 196 1 37.3642 15.5415 17.2326
 197 1 36.5494 16.0829 18.2381
 198 1 36.1234 15.2957 19.3064
 199 1 36.5179 13.9623 19.3901
 200 1 37.3415 13.4206 18.4057
 201 1 37.7615 16.3912 16.0408
 202 2 37.3692 17.393 16.2109
 203 1 37.2541 15.829 14.6871
 204 2 37.5663 16.4508 13.8469
 205 2 37.6761 14.8329 14.5012
 206 2 38.3985 13.7605 16.5667
 207 2 36.223 17.1187 18.1873
 208 2 35.4742 15.7243 20.0646
 209 2 36.188 13.3441 20.2175
 210 2 37.655 12.3829 18.4717
 211 1 35.3975 15.8138 12.1063
 212 1 35.2212 15.1769 13.3423
 213 1 34.4871 13.9804 13.3863
 214 1 33.9315 13.4469 12.2236
 215 1 34.104 14.0963 11.0044
 216 1 34.8378 15.2789 10.9461
 217 1 35.7423 15.7831 14.6354
 218 2 35.479 15.0971 15.441
 219 1 35.1749 17.1975 14.9075
 220 2 35.5845 17.6283 15.8191
 221 2 35.4534 17.8912 14.1038
 222 2 35.9545 16.7438 12.0375
 223 2 34.3211 13.467 14.3314
 224 2 33.3526 12.529 12.2697
 225 2 33.6599 13.6817 10.1043
 226 2 34.9718 15.795 10
 227 1 33.487 19.2918 16.5289
 228 1 33.1369 18.5775 15.3746
 229 1 32.2291 19.1544 14.4748
 230 1 31.6731 20.4062 14.7305
 231 1 32.0178 21.0978 15.8872
 232 1 32.9301 20.5451 16.7823
 233 1 33.676 17.1835 15.1082
 234 2 33.2835 16.8483 14.1469
 235 1 33.3078 16.1814 16.2313
 236 2 33.724 15.1928 16.0423
 237 2 33.7279 16.5042 17.1922
 238 2 34.1893 18.8707 17.2447
 239 2 31.9385 18.6299 13.5693
 240 2 30.9654 20.8432 14.0334
 241 2 31.5735 22.0688 16.0842
 242 2 33.2073 21.088 17.6822
 243 1 31.8495 13.6554 17.4093
 244 1 31.4767 15.0063 17.4729
 245 1 30.7286 15.4471 18.5749
 246 1 30.3489 14.5529 19.5766
 247 1 30.7211 13.2133 19.497
 248 1 31.4746 12.7664 18.4149
 249 1 31.8134 15.9806 16.355
 250 2 31.4379 16.9631 16.6456
 251 1 31.2287 15.5487 14.9911
 252 2 31.5107 16.2414 14.1994
 253 2 31.6285 14.5723 14.6883
 254 2 32.4218 13.2781 16.5668
 255 2 30.4196 16.488 18.6498
 256 2 29.7539 14.8963 20.4173
 257 2 30.4179 12.5194 20.2756
 258 2 31.7656 11.7218 18.344
 259 1 29.3422 15.8824 12.5095
 260 1 29.1601 15.0937 13.6542
 261 1 28.4054 13.9159 13.556
 262 1 27.834 13.5437 12.3411
 263 1 28.0168 14.3391 11.2131
 264 1 28.7726 15.5054 11.2952
 265 1 29.7151 15.5191 15.0016
 266 2 29.4664 14.7425 15.7271
 267 1 29.1613 16.8891 15.4622
 268 2 29.5899 17.191 16.4176
 269 2 29.4387 17.6776 14.7508
 270 2 29.9194 16.8038 12.5637
 271 2 28.2451 13.287 14.4282
 272 2 27.2414 12.6376 12.2749
 273 2 27.5616 14.0452 10.2743
 274 2 28.9142 16.131 10.4185
 275 1 27.4975 18.7641 17.359
 276 1 27.1434 18.2254 16.1131
 277 1 26.2533 18.933 15.2913
 278 1 25.7222 20.1522 15.7113
 279 1 26.0771 20.6746 16.9524
 280 1 26.9634 19.9823 17.7756
 281 1 27.6594 16.8683 15.6648
 282 2 27.2534 16.6661 14.6718
 283 1 27.2673 15.7409 16.6476
 284 2 27.6719 14.7803 16.3292
 285 2 27.6977 15.9268 17.6406
 286 2 28.1821 18.2294 18.0161
 287 2 25.9517 18.5224 14.3289
 288 2 25.0242 20.6888 15.0784
 289 2 25.654 21.6211 17.2791
 290 2 27.2405 20.3873 18.7454
 291 1 25.7735 13.1206 17.4972
 292 1 25.416 14.455 17.7372
 293 1 24.6829 14.7635 18.8904
 294 1 24.2952 13.7564 19.7757
 295 1 24.6474 12.4341 19.521
 296 1 25.3898 12.1159 18.3864
 297 1 25.7635 15.5588 16.7523
 298 2 25.3937 16.5018 17.1616
 299 1 25.1495 15.3148 15.3554
 300 2 25.4323 16.1052 14.6599
 301 2 25.5423 14.3852 14.9221
 302 2 26.3457 12.849 16.6135
 303 2 24.394 15.7882 19.1049
 304 2 23.7145 14.0117 20.6567
 305 2 24.3438 11.6502 20.2102
 306 2 25.671 11.0871 18.1814
 307 1 23.2382 15.9709 12.9544
 308 1 23.0778 15.0308 13.9819
 309 1 22.3468 13.863 13.7218
 310 1 21.7697 13.6496 12.4708
 311 1 21.9228 14.5981 11.4626
 312 1 22.6634 15.7542 11.7028
 313 1 23.628 15.2799 15.3769
 314 2 23.3738 14.4197 16.0006
 315 1 23.0483 16.5712 16
 316 2 23.4735 16.7469 16.9892
 317 2 23.3321 17.4459 15.3991
 318 2 23.8021 16.8853 13.1209
 319 2 22.2018 13.1172 14.4994
 320 2 21.1942 12.746 12.2928
 321 2 21.466 14.4365 10.4912
 322 2 22.7902 16.5002 10.924
 323 1 21.3531 18.2002 18.0771
 324 1 21.0089 17.8145 16.7721
 325 1 20.1253 18.6155 16.0371
 326 1 19.5786 19.7668 16.6049
 327 1 19.9216 20.132 17.9052
 328 1 20.8094 19.3541 18.642
 329 1 21.5298 16.5232 16.1647
 330 2 21.1253 16.438 15.1527
 331 1 21.1013 15.2871 16.9914
 332 2 21.5052 14.3733 16.5529
 333 2 21.5321 15.3429 18.0008
 334 2 22.0396 17.5973 18.6657
 335 2 19.8481 18.3383 15.0227
 336 2 18.8803 20.372 16.0321
 337 2 19.4917 21.0256 18.3508
 338 2 21.0722 19.639 19.6556
 339 1 19.5876 12.5955 17.5459
 340 1 19.2471 13.8975 17.9432
 341 1 18.5178 14.072 19.1272
 342 1 18.1137 12.9698 19.8763
 343 1 18.4437 11.6802 19.4614
 344 1 19.1864 11.4938 18.2968
 345 1 19.5838 15.1071 17.0866
 346 2 19.2132 15.9991 17.5986
 347 1 18.9227 15.0195 15.6882
 348 2 19.1914 15.8871 15.0811
 349 2 19.3156 14.148 15.1453
 350 2 20.1551 12.4281 16.6345
 351 2 18.2392 15.0711 19.4564
 352 2 17.5281 13.1186 20.7807
 353 2 18.1184 10.8225 20.0409
 354 2 19.4459 10.4933 17.9634
 355 1 16.8919 15.8191 13.3999
 356 1 16.7956 14.7894 14.349
 357 1 16.0558 13.6386 14.0268
 358 1 15.3879 13.5421 12.8045
 359 1 15.4659 14.586 11.886
 360 1 16.2224 15.7185 12.1797
 361 1 17.3886 14.939 15.7445
 362 2 17.1653 14.0209 16.2945
 363 1 16.7581 16.142 16.5021
 364 2 17.2141 16.2584 17.4878
 365 2 16.9819 17.0736 15.9636
 366 2 17.4596 16.7223 13.6176
 367 2 15.9617 12.8249 14.7425
 368 2 14.793 12.6612 12.5763
 369 2 14.9339 14.5247 10.9395
 370 2 16.2752 16.5323 11.4605
 371 1 14.9366 17.5781 18.6856
 372 1 14.6288 17.2417 17.3591
 373 1 13.6343 17.9718 16.6875
 374 1 12.9234 18.9736 17.3487
 375 1 13.2084 19.2667 18.6805
 376 1 14.2209 18.5774 19.3451
 377 1 15.234 16.014 16.6977
 378 2 14.813 15.9423 15.6909
 379 1 14.841 14.7408 17.498
 380 2 15.3056 13.8676 17.0363
 381 2 15.2495 14.7918 18.5165
 382 2 15.6999 17.0311 19.2323
 383 2 13.3709 17.7329 15.6582
 384 2 12.1301 19.5081 16.8303
 385 2 12.6341 20.0281 19.203
 386 2 14.4367 18.7979 20.3868
 387 1 13.6374 12.1005 18.4168
 388 1 12.8799 13.2782 18.3553
 389 1 11.5797 13.273 18.8914
 390 1 11.0262 12.1006 19.4023
 391 1 11.7708 10.9243 19.4059
 392 1 13.0815 10.9288 18.9334
 393 1 13.316 14.4962 17.5548
 394 2 12.8487 15.3705 18.025
 395 1 12.7432 14.3216 16.1398
 396 2 13.2331 13.4864 15.6261
 397 2 11.6692 14.1124 16.1649
 398 2 14.6432 12.0526 18.0117
 399 2 10.9667 14.171 18.8486
 400 2 10 12.0982 19.7558
 401 2 11.3235 10 19.7577
 402 2 13.659 10.0094 18.9238
